25
Lattice="50.0 0.0 0.0 0.0 50.0 0.0 0.0 0.0 50.0" Properties=species:S:1:pos:R:3:forces:R:3 energy=-17660.06855946407 dihedrals="_JSON [199.6, 170.49, 260.67]" pbc="F F F"
C        1.38963128       1.30881270      -1.84807340       1.31761760      -0.64844864       0.10132923
